
Linearized model: Predictions were generated on 07-Sep-2024 at 11:58:21 using OpenFAST, compiled as a 64-bit application using single precision at commit v3.5.3-dirty
 linked with  NWTC Subroutine Library; ElastoDyn; BeamDyn

Description from the FAST input file: Generated with AeroElasticSE FAST driver

Simulation information:
   Simulation time:                     0.0000 s
   Rotor Speed:                         0.0000 rad/s
   Azimuth:                             0.0000 rad
   Wind Speed:                          0.0000 m/s
   Number of continuous states:       120
   Number of discrete states:           0
   Number of constraint states:         0
   Number of inputs:                    4
   Number of outputs:                  35
   Jacobians included in this file?    No

Order of continuous states:
   Row/Column Operating Point                                             Rotating Frame? Derivative Order Description
   ---------- ---------------                                             --------------- ---------------- -----------
          1    -6.762898407E-018                                                 T               2         BD_1 finite element node 2 (number of elements = 1; element order = 10) translational displacement in X, m
          2     2.708015618E-018                                                 T               2         BD_1 finite element node 2 (number of elements = 1; element order = 10) translational displacement in Y, m
          3    -1.517230396E-017                                                 T               2         BD_1 finite element node 2 (number of elements = 1; element order = 10) translational displacement in Z, m
          4    -1.294385974E-018                                                 T               2         BD_1 finite element node 2 (number of elements = 1; element order = 10) rotational displacement in X, rad
          5    -1.417348130E-018                                                 T               2         BD_1 finite element node 2 (number of elements = 1; element order = 10) rotational displacement in Y, rad
          6     2.456713681E-017                                                 T               2         BD_1 finite element node 2 (number of elements = 1; element order = 10) rotational displacement in Z, rad
          7    -2.209356568E-017                                                 T               2         BD_1 finite element node 3 (number of elements = 1; element order = 10) translational displacement in X, m
          8    -7.087291760E-018                                                 T               2         BD_1 finite element node 3 (number of elements = 1; element order = 10) translational displacement in Y, m
          9    -9.381648912E-017                                                 T               2         BD_1 finite element node 3 (number of elements = 1; element order = 10) translational displacement in Z, m
         10    -6.636378651E-018                                                 T               2         BD_1 finite element node 3 (number of elements = 1; element order = 10) rotational displacement in X, rad
         11    -2.017419895E-018                                                 T               2         BD_1 finite element node 3 (number of elements = 1; element order = 10) rotational displacement in Y, rad
         12     2.476670571E-017                                                 T               2         BD_1 finite element node 3 (number of elements = 1; element order = 10) rotational displacement in Z, rad
         13    -7.631299001E-017                                                 T               2         BD_1 finite element node 4 (number of elements = 1; element order = 10) translational displacement in X, m
         14     6.252587444E-017                                                 T               2         BD_1 finite element node 4 (number of elements = 1; element order = 10) translational displacement in Y, m
         15    -2.498217137E-017                                                 T               2         BD_1 finite element node 4 (number of elements = 1; element order = 10) translational displacement in Z, m
         16    -5.735921003E-018                                                 T               2         BD_1 finite element node 4 (number of elements = 1; element order = 10) rotational displacement in X, rad
         17    -5.622539977E-019                                                 T               2         BD_1 finite element node 4 (number of elements = 1; element order = 10) rotational displacement in Y, rad
         18     2.614169992E-017                                                 T               2         BD_1 finite element node 4 (number of elements = 1; element order = 10) rotational displacement in Z, rad
         19    -3.768584909E-017                                                 T               2         BD_1 finite element node 5 (number of elements = 1; element order = 10) translational displacement in X, m
         20     7.132555414E-017                                                 T               2         BD_1 finite element node 5 (number of elements = 1; element order = 10) translational displacement in Y, m
         21     2.820244836E-017                                                 T               2         BD_1 finite element node 5 (number of elements = 1; element order = 10) translational displacement in Z, m
         22    -4.099423984E-018                                                 T               2         BD_1 finite element node 5 (number of elements = 1; element order = 10) rotational displacement in X, rad
         23     1.099079946E-018                                                 T               2         BD_1 finite element node 5 (number of elements = 1; element order = 10) rotational displacement in Y, rad
         24     2.442032879E-017                                                 T               2         BD_1 finite element node 5 (number of elements = 1; element order = 10) rotational displacement in Z, rad
         25    -5.650511793E-017                                                 T               2         BD_1 finite element node 6 (number of elements = 1; element order = 10) translational displacement in X, m
         26     1.522871271E-016                                                 T               2         BD_1 finite element node 6 (number of elements = 1; element order = 10) translational displacement in Y, m
         27    -7.373722238E-017                                                 T               2         BD_1 finite element node 6 (number of elements = 1; element order = 10) translational displacement in Z, m
         28    -9.596760042E-018                                                 T               2         BD_1 finite element node 6 (number of elements = 1; element order = 10) rotational displacement in X, rad
         29    -1.283896239E-019                                                 T               2         BD_1 finite element node 6 (number of elements = 1; element order = 10) rotational displacement in Y, rad
         30     1.638307304E-017                                                 T               2         BD_1 finite element node 6 (number of elements = 1; element order = 10) rotational displacement in Z, rad
         31     8.511957171E-017                                                 T               2         BD_1 finite element node 7 (number of elements = 1; element order = 10) translational displacement in X, m
         32     2.115154560E-016                                                 T               2         BD_1 finite element node 7 (number of elements = 1; element order = 10) translational displacement in Y, m
         33     6.176623808E-017                                                 T               2         BD_1 finite element node 7 (number of elements = 1; element order = 10) translational displacement in Z, m
         34    -1.014614259E-018                                                 T               2         BD_1 finite element node 7 (number of elements = 1; element order = 10) rotational displacement in X, rad
         35     7.873895028E-018                                                 T               2         BD_1 finite element node 7 (number of elements = 1; element order = 10) rotational displacement in Y, rad
         36     3.774303043E-017                                                 T               2         BD_1 finite element node 7 (number of elements = 1; element order = 10) rotational displacement in Z, rad
         37    -1.686027817E-016                                                 T               2         BD_1 finite element node 8 (number of elements = 1; element order = 10) translational displacement in X, m
         38     2.080600380E-016                                                 T               2         BD_1 finite element node 8 (number of elements = 1; element order = 10) translational displacement in Y, m
         39     4.737912291E-018                                                 T               2         BD_1 finite element node 8 (number of elements = 1; element order = 10) translational displacement in Z, m
         40     6.599941759E-019                                                 T               2         BD_1 finite element node 8 (number of elements = 1; element order = 10) rotational displacement in X, rad
         41    -5.240676555E-017                                                 T               2         BD_1 finite element node 8 (number of elements = 1; element order = 10) rotational displacement in Y, rad
         42     1.605611129E-018                                                 T               2         BD_1 finite element node 8 (number of elements = 1; element order = 10) rotational displacement in Z, rad
         43    -2.415385653E-016                                                 T               2         BD_1 finite element node 9 (number of elements = 1; element order = 10) translational displacement in X, m
         44     1.830133797E-016                                                 T               2         BD_1 finite element node 9 (number of elements = 1; element order = 10) translational displacement in Y, m
         45     1.148492370E-016                                                 T               2         BD_1 finite element node 9 (number of elements = 1; element order = 10) translational displacement in Z, m
         46    -9.641323571E-018                                                 T               2         BD_1 finite element node 9 (number of elements = 1; element order = 10) rotational displacement in X, rad
         47     8.878195689E-017                                                 T               2         BD_1 finite element node 9 (number of elements = 1; element order = 10) rotational displacement in Y, rad
         48     4.518475420E-017                                                 T               2         BD_1 finite element node 9 (number of elements = 1; element order = 10) rotational displacement in Z, rad
         49     6.899889095E-016                                                 T               2         BD_1 finite element node 10 (number of elements = 1; element order = 10) translational displacement in X, m
         50     2.638444368E-016                                                 T               2         BD_1 finite element node 10 (number of elements = 1; element order = 10) translational displacement in Y, m
         51     2.425183442E-016                                                 T               2         BD_1 finite element node 10 (number of elements = 1; element order = 10) translational displacement in Z, m
         52    -4.070064449E-017                                                 T               2         BD_1 finite element node 10 (number of elements = 1; element order = 10) rotational displacement in X, rad
         53     1.224062367E-017                                                 T               2         BD_1 finite element node 10 (number of elements = 1; element order = 10) rotational displacement in Y, rad
         54     6.650624769E-017                                                 T               2         BD_1 finite element node 10 (number of elements = 1; element order = 10) rotational displacement in Z, rad
         55     4.752109275E-017                                                 T               2         BD_1 finite element node 11 (number of elements = 1; element order = 10) translational displacement in X, m
         56     3.188113429E-016                                                 T               2         BD_1 finite element node 11 (number of elements = 1; element order = 10) translational displacement in Y, m
         57    -4.776993515E-017                                                 T               2         BD_1 finite element node 11 (number of elements = 1; element order = 10) translational displacement in Z, m
         58     7.556981125E-017                                                 T               2         BD_1 finite element node 11 (number of elements = 1; element order = 10) rotational displacement in X, rad
         59    -5.332011522E-016                                                 T               2         BD_1 finite element node 11 (number of elements = 1; element order = 10) rotational displacement in Y, rad
         60    -2.021396218E-016                                                 T               2         BD_1 finite element node 11 (number of elements = 1; element order = 10) rotational displacement in Z, rad
         61     0.000000000E+000                                                 T               2         BD_1 First time derivative of finite element node 2 (number of elements = 1; element order = 10) translational displacement in X, m/s
         62     0.000000000E+000                                                 T               2         BD_1 First time derivative of finite element node 2 (number of elements = 1; element order = 10) translational displacement in Y, m/s
         63     0.000000000E+000                                                 T               2         BD_1 First time derivative of finite element node 2 (number of elements = 1; element order = 10) translational displacement in Z, m/s
         64     0.000000000E+000                                                 T               2         BD_1 First time derivative of finite element node 2 (number of elements = 1; element order = 10) rotational displacement in X, rad/s
         65     0.000000000E+000                                                 T               2         BD_1 First time derivative of finite element node 2 (number of elements = 1; element order = 10) rotational displacement in Y, rad/s
         66     0.000000000E+000                                                 T               2         BD_1 First time derivative of finite element node 2 (number of elements = 1; element order = 10) rotational displacement in Z, rad/s
         67     0.000000000E+000                                                 T               2         BD_1 First time derivative of finite element node 3 (number of elements = 1; element order = 10) translational displacement in X, m/s
         68     0.000000000E+000                                                 T               2         BD_1 First time derivative of finite element node 3 (number of elements = 1; element order = 10) translational displacement in Y, m/s
         69     0.000000000E+000                                                 T               2         BD_1 First time derivative of finite element node 3 (number of elements = 1; element order = 10) translational displacement in Z, m/s
         70     0.000000000E+000                                                 T               2         BD_1 First time derivative of finite element node 3 (number of elements = 1; element order = 10) rotational displacement in X, rad/s
         71     0.000000000E+000                                                 T               2         BD_1 First time derivative of finite element node 3 (number of elements = 1; element order = 10) rotational displacement in Y, rad/s
         72     0.000000000E+000                                                 T               2         BD_1 First time derivative of finite element node 3 (number of elements = 1; element order = 10) rotational displacement in Z, rad/s
         73     0.000000000E+000                                                 T               2         BD_1 First time derivative of finite element node 4 (number of elements = 1; element order = 10) translational displacement in X, m/s
         74     0.000000000E+000                                                 T               2         BD_1 First time derivative of finite element node 4 (number of elements = 1; element order = 10) translational displacement in Y, m/s
         75     0.000000000E+000                                                 T               2         BD_1 First time derivative of finite element node 4 (number of elements = 1; element order = 10) translational displacement in Z, m/s
         76     0.000000000E+000                                                 T               2         BD_1 First time derivative of finite element node 4 (number of elements = 1; element order = 10) rotational displacement in X, rad/s
         77     0.000000000E+000                                                 T               2         BD_1 First time derivative of finite element node 4 (number of elements = 1; element order = 10) rotational displacement in Y, rad/s
         78     0.000000000E+000                                                 T               2         BD_1 First time derivative of finite element node 4 (number of elements = 1; element order = 10) rotational displacement in Z, rad/s
         79     0.000000000E+000                                                 T               2         BD_1 First time derivative of finite element node 5 (number of elements = 1; element order = 10) translational displacement in X, m/s
         80     0.000000000E+000                                                 T               2         BD_1 First time derivative of finite element node 5 (number of elements = 1; element order = 10) translational displacement in Y, m/s
         81     0.000000000E+000                                                 T               2         BD_1 First time derivative of finite element node 5 (number of elements = 1; element order = 10) translational displacement in Z, m/s
         82     0.000000000E+000                                                 T               2         BD_1 First time derivative of finite element node 5 (number of elements = 1; element order = 10) rotational displacement in X, rad/s
         83     0.000000000E+000                                                 T               2         BD_1 First time derivative of finite element node 5 (number of elements = 1; element order = 10) rotational displacement in Y, rad/s
         84     0.000000000E+000                                                 T               2         BD_1 First time derivative of finite element node 5 (number of elements = 1; element order = 10) rotational displacement in Z, rad/s
         85     0.000000000E+000                                                 T               2         BD_1 First time derivative of finite element node 6 (number of elements = 1; element order = 10) translational displacement in X, m/s
         86     0.000000000E+000                                                 T               2         BD_1 First time derivative of finite element node 6 (number of elements = 1; element order = 10) translational displacement in Y, m/s
         87     0.000000000E+000                                                 T               2         BD_1 First time derivative of finite element node 6 (number of elements = 1; element order = 10) translational displacement in Z, m/s
         88     0.000000000E+000                                                 T               2         BD_1 First time derivative of finite element node 6 (number of elements = 1; element order = 10) rotational displacement in X, rad/s
         89     0.000000000E+000                                                 T               2         BD_1 First time derivative of finite element node 6 (number of elements = 1; element order = 10) rotational displacement in Y, rad/s
         90     0.000000000E+000                                                 T               2         BD_1 First time derivative of finite element node 6 (number of elements = 1; element order = 10) rotational displacement in Z, rad/s
         91     0.000000000E+000                                                 T               2         BD_1 First time derivative of finite element node 7 (number of elements = 1; element order = 10) translational displacement in X, m/s
         92     0.000000000E+000                                                 T               2         BD_1 First time derivative of finite element node 7 (number of elements = 1; element order = 10) translational displacement in Y, m/s
         93     0.000000000E+000                                                 T               2         BD_1 First time derivative of finite element node 7 (number of elements = 1; element order = 10) translational displacement in Z, m/s
         94     0.000000000E+000                                                 T               2         BD_1 First time derivative of finite element node 7 (number of elements = 1; element order = 10) rotational displacement in X, rad/s
         95     0.000000000E+000                                                 T               2         BD_1 First time derivative of finite element node 7 (number of elements = 1; element order = 10) rotational displacement in Y, rad/s
         96     0.000000000E+000                                                 T               2         BD_1 First time derivative of finite element node 7 (number of elements = 1; element order = 10) rotational displacement in Z, rad/s
         97     0.000000000E+000                                                 T               2         BD_1 First time derivative of finite element node 8 (number of elements = 1; element order = 10) translational displacement in X, m/s
         98     0.000000000E+000                                                 T               2         BD_1 First time derivative of finite element node 8 (number of elements = 1; element order = 10) translational displacement in Y, m/s
         99     0.000000000E+000                                                 T               2         BD_1 First time derivative of finite element node 8 (number of elements = 1; element order = 10) translational displacement in Z, m/s
        100     0.000000000E+000                                                 T               2         BD_1 First time derivative of finite element node 8 (number of elements = 1; element order = 10) rotational displacement in X, rad/s
        101     0.000000000E+000                                                 T               2         BD_1 First time derivative of finite element node 8 (number of elements = 1; element order = 10) rotational displacement in Y, rad/s
        102     0.000000000E+000                                                 T               2         BD_1 First time derivative of finite element node 8 (number of elements = 1; element order = 10) rotational displacement in Z, rad/s
        103     0.000000000E+000                                                 T               2         BD_1 First time derivative of finite element node 9 (number of elements = 1; element order = 10) translational displacement in X, m/s
        104     0.000000000E+000                                                 T               2         BD_1 First time derivative of finite element node 9 (number of elements = 1; element order = 10) translational displacement in Y, m/s
        105     0.000000000E+000                                                 T               2         BD_1 First time derivative of finite element node 9 (number of elements = 1; element order = 10) translational displacement in Z, m/s
        106     0.000000000E+000                                                 T               2         BD_1 First time derivative of finite element node 9 (number of elements = 1; element order = 10) rotational displacement in X, rad/s
        107     0.000000000E+000                                                 T               2         BD_1 First time derivative of finite element node 9 (number of elements = 1; element order = 10) rotational displacement in Y, rad/s
        108     0.000000000E+000                                                 T               2         BD_1 First time derivative of finite element node 9 (number of elements = 1; element order = 10) rotational displacement in Z, rad/s
        109     0.000000000E+000                                                 T               2         BD_1 First time derivative of finite element node 10 (number of elements = 1; element order = 10) translational displacement in X, m/s
        110     0.000000000E+000                                                 T               2         BD_1 First time derivative of finite element node 10 (number of elements = 1; element order = 10) translational displacement in Y, m/s
        111     0.000000000E+000                                                 T               2         BD_1 First time derivative of finite element node 10 (number of elements = 1; element order = 10) translational displacement in Z, m/s
        112     0.000000000E+000                                                 T               2         BD_1 First time derivative of finite element node 10 (number of elements = 1; element order = 10) rotational displacement in X, rad/s
        113     0.000000000E+000                                                 T               2         BD_1 First time derivative of finite element node 10 (number of elements = 1; element order = 10) rotational displacement in Y, rad/s
        114     0.000000000E+000                                                 T               2         BD_1 First time derivative of finite element node 10 (number of elements = 1; element order = 10) rotational displacement in Z, rad/s
        115     0.000000000E+000                                                 T               2         BD_1 First time derivative of finite element node 11 (number of elements = 1; element order = 10) translational displacement in X, m/s
        116     0.000000000E+000                                                 T               2         BD_1 First time derivative of finite element node 11 (number of elements = 1; element order = 10) translational displacement in Y, m/s
        117     0.000000000E+000                                                 T               2         BD_1 First time derivative of finite element node 11 (number of elements = 1; element order = 10) translational displacement in Z, m/s
        118     0.000000000E+000                                                 T               2         BD_1 First time derivative of finite element node 11 (number of elements = 1; element order = 10) rotational displacement in X, rad/s
        119     0.000000000E+000                                                 T               2         BD_1 First time derivative of finite element node 11 (number of elements = 1; element order = 10) rotational displacement in Y, rad/s
        120     0.000000000E+000                                                 T               2         BD_1 First time derivative of finite element node 11 (number of elements = 1; element order = 10) rotational displacement in Z, rad/s

Order of continuous state derivatives:
   Row/Column Operating Point                                             Rotating Frame? Derivative Order Description
   ---------- ---------------                                             --------------- ---------------- -----------
          1     0.000000000E+000                                                 T               2         First time derivative of BD_1 finite element node 2 (number of elements = 1; element order = 10) translational displacement in X, m/s
          2     0.000000000E+000                                                 T               2         First time derivative of BD_1 finite element node 2 (number of elements = 1; element order = 10) translational displacement in Y, m/s
          3     0.000000000E+000                                                 T               2         First time derivative of BD_1 finite element node 2 (number of elements = 1; element order = 10) translational displacement in Z, m/s
          4     0.000000000E+000                                                 T               2         First time derivative of BD_1 finite element node 2 (number of elements = 1; element order = 10) rotational displacement in X, rad/s
          5     0.000000000E+000                                                 T               2         First time derivative of BD_1 finite element node 2 (number of elements = 1; element order = 10) rotational displacement in Y, rad/s